# vtk DataFile Version 2.0
 test maillage
 ASCII
 DATASET UNSTRUCTURED_GRID
 POINTS          57  double
   0.0000000000000000        0.0000000000000000        0.0000000000000000     
   0.0000000000000000       0.12500000000000000        0.0000000000000000     
   0.0000000000000000       0.25000000000000000        0.0000000000000000     
   0.0000000000000000       0.50000000000000000        0.0000000000000000     
   0.0000000000000000        1.0000000000000000        0.0000000000000000     
  0.12500000000000000        0.0000000000000000        0.0000000000000000     
  0.12500000000000000       0.12500000000000000        0.0000000000000000     
  0.12500000000000000       0.25000000000000000        0.0000000000000000     
  0.25000000000000000        0.0000000000000000        0.0000000000000000     
  0.25000000000000000       0.12500000000000000        0.0000000000000000     
  0.25000000000000000       0.25000000000000000        0.0000000000000000     
  0.25000000000000000       0.50000000000000000        0.0000000000000000     
  0.50000000000000000        0.0000000000000000        0.0000000000000000     
  0.50000000000000000       0.25000000000000000        0.0000000000000000     
  0.50000000000000000       0.50000000000000000        0.0000000000000000     
  0.50000000000000000        1.0000000000000000        0.0000000000000000     
   1.0000000000000000        0.0000000000000000        0.0000000000000000     
   1.0000000000000000       0.50000000000000000        0.0000000000000000     
   1.0000000000000000        1.0000000000000000        0.0000000000000000     
   6.2500000000000000E-002   6.2500000000000000E-002   0.0000000000000000     
   6.2500000000000000E-002  0.18750000000000000        0.0000000000000000     
  0.18750000000000000        6.2500000000000000E-002   0.0000000000000000     
  0.18750000000000000       0.18750000000000000        0.0000000000000000     
  0.12500000000000000       0.37500000000000000        0.0000000000000000     
  0.37500000000000000       0.12500000000000000        0.0000000000000000     
  0.37500000000000000       0.37500000000000000        0.0000000000000000     
  0.25000000000000000       0.75000000000000000        0.0000000000000000     
  0.75000000000000000       0.25000000000000000        0.0000000000000000     
  0.75000000000000000       0.75000000000000000        0.0000000000000000     
   0.0000000000000000        6.2500000000000000E-002   0.0000000000000000     
   6.2500000000000000E-002   0.0000000000000000        0.0000000000000000     
   0.0000000000000000       0.18750000000000000        0.0000000000000000     
   6.2500000000000000E-002  0.12500000000000000        0.0000000000000000     
   0.0000000000000000       0.37500000000000000        0.0000000000000000     
   6.2500000000000000E-002  0.25000000000000000        0.0000000000000000     
   0.0000000000000000       0.75000000000000000        0.0000000000000000     
  0.12500000000000000       0.50000000000000000        0.0000000000000000     
  0.25000000000000000        1.0000000000000000        0.0000000000000000     
  0.12500000000000000        6.2500000000000000E-002   0.0000000000000000     
  0.18750000000000000        0.0000000000000000        0.0000000000000000     
  0.12500000000000000       0.18750000000000000        0.0000000000000000     
  0.18750000000000000       0.12500000000000000        0.0000000000000000     
  0.18750000000000000       0.25000000000000000        0.0000000000000000     
  0.25000000000000000        6.2500000000000000E-002   0.0000000000000000     
  0.37500000000000000        0.0000000000000000        0.0000000000000000     
  0.25000000000000000       0.18750000000000000        0.0000000000000000     
  0.25000000000000000       0.37500000000000000        0.0000000000000000     
  0.37500000000000000       0.25000000000000000        0.0000000000000000     
  0.37500000000000000       0.50000000000000000        0.0000000000000000     
  0.50000000000000000       0.12500000000000000        0.0000000000000000     
  0.75000000000000000        0.0000000000000000        0.0000000000000000     
  0.50000000000000000       0.37500000000000000        0.0000000000000000     
  0.50000000000000000       0.75000000000000000        0.0000000000000000     
  0.75000000000000000       0.50000000000000000        0.0000000000000000     
  0.75000000000000000        1.0000000000000000        0.0000000000000000     
   1.0000000000000000       0.25000000000000000        0.0000000000000000     
   1.0000000000000000       0.75000000000000000        0.0000000000000000     
 CELLS           40         208
           4           0          30          19          29
           4           1          32          20          31
           4          38           5          39          21
           4           6          41          22          40
           5           2          34           7          23          33
           5           8          44          24           9          43
           4          10          47          25          46
           5           3          36          11          26          35
           5          12          50          27          13          49
           4          14          53          28          52
           4          32           1          29          19
           4          34           2          31          20
           4          41           6          38          21
           4          42           7          40          22
           4          36           3          33          23
           4          12          49          24          44
           4          48          11          46          25
           4          37           4          35          26
           5          13          27          53          14          51
           4          54          15          52          28
           4          32          19          38           6
           4          34          20          40           7
           4          41          21          43           9
           4          42          22          45          10
           4          36          23          46          11
           4          47          24          49          13
           4          48          25          51          14
           4          37          26          52          15
           4          53          27          55          17
           4          54          28          56          18
           4           5          38          19          30
           4           6          40          20          32
           4           8          43          21          39
           4           9          45          22          41
           5          23           7          42          10          46
           5           9          24          47          10          45
           4          13          51          25          47
           5          26          11          48          14          52
           4          16          55          27          50
           4          17          56          28          53
 CELL_TYPES           40
           9
           9
           9
           9
           7
           7
           9
           7
           7
           9
           9
           9
           9
           9
           9
           9
           9
           9
           7
           9
           9
           9
           9
           9
           9
           9
           9
           9
           9
           9
           9
           9
           9
           9
           7
           7
           9
           7
           9
           9
 CELL_DATA           40
 SCALARS T double
 LOOKUP_TABLE default
   300.00000000000000     
   300.00000000000000     
   300.00000000000000     
   300.00000000000000     
   300.00000000000000     
   300.00000000000000     
   300.00000000000000     
   300.00000000000000     
   300.00000000000000     
   300.00000000000000     
   300.00000000000000     
   300.00000000000000     
   300.00000000000000     
   300.00000000000000     
   300.00000000000000     
   300.00000000000000     
   300.00000000000000     
   300.00000000000000     
   300.00000000000000     
   300.00000000000000     
   300.00000000000000     
   300.00000000000000     
   300.00000000000000     
   300.00000000000000     
   300.00000000000000     
   300.00000000000000     
   300.00000000000000     
   300.00000000000000     
   300.00000000000000     
   300.00000000000000     
   300.00000000000000     
   300.00000000000000     
   300.00000000000000     
   300.00000000000000     
   300.00000000000000     
   300.00000000000000     
   300.00000000000000     
   300.00000000000000     
   300.00000000000000     
   300.00000000000000     
