# vtk DataFile Version 3.0
out.vtk
ASCII
DATASET POLYDATA

POINTS 34 float
  0.229627356      0.261115730       0.00000000    
  0.228517905      0.517392695       0.00000000    
  0.260598391      0.222279862       0.00000000    
  0.274191678      0.459412217       0.00000000    
  0.511175156      0.780450463       0.00000000    
  0.275165230      0.723125875       0.00000000    
  0.238802984      0.764447272       0.00000000    
  0.725808322      0.540587783       0.00000000    
  0.466946006      0.724201262       0.00000000    
  0.488824874      0.219549522       0.00000000    
  0.533053994      0.275798708       0.00000000    
  0.739401639      0.777720153       0.00000000    
  0.770372629      0.738884270       0.00000000    
  0.474148393      0.462863445       0.00000000    
  0.525851607      0.537136555       0.00000000    
  0.771482110      0.482607275       0.00000000    
  0.724834740      0.276874125       0.00000000    
  0.761197031      0.235552713       0.00000000    
  0.238265157       2.77555756E-17   0.00000000    
  0.517926097       0.00000000       0.00000000    
  0.738946676       0.00000000       0.00000000    
   1.00000000       0.00000000       0.00000000    
   1.00000000      0.237615794       0.00000000    
   1.00000000      0.482063472       0.00000000    
   1.00000000      0.737129092       0.00000000    
   1.00000000       1.00000000       0.00000000    
  0.761734843       1.00000000       0.00000000    
  0.482073873       1.00000000       0.00000000    
  0.261053354       1.00000000       0.00000000    
   0.00000000       1.00000000       0.00000000    
  -2.77555756E-17  0.762384236       0.00000000    
  -2.77555756E-17  0.517936528       0.00000000    
   2.77555756E-17  0.262870878       0.00000000    
   0.00000000       0.00000000       0.00000000    

LINES 16 48
           2          18          19
           2          19          20
           2          20          21
           2          21          22
           2          22          23
           2          23          24
           2          24          25
           2          25          26
           2          26          27
           2          27          28
           2          28          29
           2          29          30
           2          30          31
           2          31          32
           2          32          33
           2          33          18

CELL_DATA 16
SCALARS tags int 1
LOOKUP_TABLE default
           1
           1
           1
           2
           2
           2
           2
           3
           3
           3
           3
           4
           4
           4
           4
           1
