# vtk DataFile Version 3.0
out.vtk
ASCII
DATASET POLYDATA

POINTS 514 float
  0.106160916       6.31890520E-02   0.00000000    
   6.54298216E-02   4.53990884E-02   0.00000000    
   3.67061011E-02   7.18828291E-02   0.00000000    
  0.261036962       4.93205898E-02   0.00000000    
   6.32484704E-02  0.117908470       0.00000000    
  0.101178609      0.108385988       0.00000000    
   4.99117635E-02  0.141878605       0.00000000    
  0.230839461      0.189119339       0.00000000    
   4.48208787E-02  0.211758181       0.00000000    
   6.94865435E-02  0.178578675       0.00000000    
  0.126758516      0.127926782       0.00000000    
   9.86105278E-02  0.181639761       0.00000000    
  0.493217975      0.372793227       0.00000000    
  0.128645480      0.286966532       0.00000000    
  0.119215891      0.225762889       0.00000000    
  0.161149368      0.218032718       0.00000000    
  0.129975393       4.93703522E-02   0.00000000    
  0.127558783      0.153643876       0.00000000    
  0.184586912      0.244559258       0.00000000    
  0.171260670      0.179662794       0.00000000    
  0.193639219      0.168544352       0.00000000    
  0.165772244      0.105565749       0.00000000    
  0.198986217      0.126115188       0.00000000    
  0.261736929      0.173890591       0.00000000    
  0.165646896       6.78858235E-02   0.00000000    
  0.196239471       4.97050360E-02   0.00000000    
  0.229407012      0.111372158       0.00000000    
  0.229117289       6.67582676E-02   0.00000000    
  0.581934929       4.88113724E-02   0.00000000    
  0.391366631       4.96011153E-02   0.00000000    
  0.292735428       6.74186498E-02   0.00000000    
  0.326268047       4.87184823E-02   0.00000000    
  0.256490082      0.125112504       0.00000000    
  0.293213755      0.106296264       0.00000000    
  0.434186846      0.248559117       0.00000000    
  0.323016316      0.125193998       0.00000000    
  0.386750549      0.302456737       0.00000000    
  0.425544769       6.86118156E-02   0.00000000    
  0.456720918      0.130526364       0.00000000    
  0.489869624       7.09138140E-02   0.00000000    
  0.455129772       5.29883094E-02   0.00000000    
  0.359083712       6.79093748E-02   0.00000000    
  0.358541459      0.104915515       0.00000000    
  0.453217924      0.172987774       0.00000000    
  0.507368982      0.877760887       0.00000000    
  0.391882986      0.125914544       0.00000000    
  0.423023671      0.110488385       0.00000000    
  0.118345328      0.376706183       0.00000000    
  0.282011658      0.182286665       0.00000000    
  0.387935340      0.165962771       0.00000000    
  0.416763365      0.186973125       0.00000000    
  0.323651731      0.157179356       0.00000000    
  0.353926450      0.179723963       0.00000000    
  0.297687709      0.226964295       0.00000000    
  0.347732008      0.217920706       0.00000000    
  0.411853075      0.228949293       0.00000000    
  0.433208019      0.412568033       0.00000000    
  0.325556099      0.336945117       0.00000000    
  0.196205050      0.311145097       0.00000000    
  0.289752603      0.242327362       0.00000000    
  0.312252879      0.287536889       0.00000000    
  0.308079690      0.298732311       0.00000000    
  0.367970467      0.240851566       0.00000000    
  0.361354977      0.271568954       0.00000000    
  0.373262316      0.338579297       0.00000000    
  0.386805862      0.363304913       0.00000000    
  0.480272859      0.192500100       0.00000000    
  0.605790555      0.252871215       0.00000000    
  0.427413851      0.293946534       0.00000000    
  0.450593084      0.314520508       0.00000000    
  0.415467232      0.437719464       0.00000000    
  0.325690389      0.790895402       0.00000000    
  0.449835360      0.343068838       0.00000000    
  0.417308569      0.370083272       0.00000000    
  0.239147335      0.698243201       0.00000000    
   4.54874225E-02  0.720949590       0.00000000    
  0.257464767      0.359166712       0.00000000    
  0.352987826      0.465693086       0.00000000    
  0.307274699      0.368380159       0.00000000    
  0.190961823      0.515497923       0.00000000    
  0.317292184      0.395654380       0.00000000    
   5.39671481E-02  0.470125467       0.00000000    
  0.359186381      0.403356522       0.00000000    
  0.373323947      0.434406340       0.00000000    
  0.295893997      0.427225322       0.00000000    
  0.310602158      0.462570012       0.00000000    
  0.172741517      0.280202180       0.00000000    
  0.176711172      0.412024379       0.00000000    
  0.194034070      0.446349114       0.00000000    
  0.253088892      0.423502862       0.00000000    
  0.233227357      0.448588163       0.00000000    
  0.239045531      0.379437953       0.00000000    
  0.134168312      0.409687132       0.00000000    
  0.225702107      0.235953405       0.00000000    
  0.243696511      0.251050860       0.00000000    
  0.252279699      0.314967155       0.00000000    
  0.238899186      0.304289758       0.00000000    
  0.181716487      0.345640987       0.00000000    
  0.198626965      0.375951886       0.00000000    
   6.67372942E-02  0.251001596       0.00000000    
  0.107495643      0.246454760       0.00000000    
  0.133646667      0.347109646       0.00000000    
  0.116254702      0.311660707       0.00000000    
   5.09560890E-02  0.278228045       0.00000000    
   6.97197840E-02  0.314968079       0.00000000    
   7.11109787E-02  0.376772255       0.00000000    
   5.49292229E-02  0.343195111       0.00000000    
  0.161944777      0.681586444       0.00000000    
   5.52033372E-02  0.406878442       0.00000000    
  0.218676507      0.657144666       0.00000000    
  0.170565769      0.544523776       0.00000000    
  0.115537778      0.441138178       0.00000000    
   7.09267780E-02  0.439929247       0.00000000    
   6.93488196E-02  0.568931639       0.00000000    
   5.32738157E-02  0.533182263       0.00000000    
   7.01045394E-02  0.504570544       0.00000000    
  0.104172915      0.697941244       0.00000000    
  0.173019513      0.477910906       0.00000000    
  0.247356415      0.556779742       0.00000000    
  0.132053837      0.476401567       0.00000000    
  0.113566272      0.505313516       0.00000000    
  0.290702939      0.491889685       0.00000000    
  0.249828920      0.489614904       0.00000000    
  0.112569302      0.569540501       0.00000000    
  0.130499005      0.543525219       0.00000000    
  0.256948233      0.825527608       0.00000000    
  0.188941702      0.584431946       0.00000000    
  0.229524747      0.517045796       0.00000000    
  0.137122080      0.754569292       0.00000000    
  0.186189964      0.654451013       0.00000000    
  0.434004843      0.883657396       0.00000000    
  0.278839141      0.629003942       0.00000000    
  0.128962800      0.610658646       0.00000000    
  0.167747468      0.612071276       0.00000000    
  0.231828853      0.840393186       0.00000000    
   5.28002009E-02  0.595960319       0.00000000    
  0.111137122      0.633788705       0.00000000    
  0.124791123      0.676436186       0.00000000    
   6.52368516E-02  0.693560839       0.00000000    
   6.80390894E-02  0.631869435       0.00000000    
   5.06316684E-02  0.658723295       0.00000000    
  0.146214381      0.784084141       0.00000000    
  0.115778685      0.744474530       0.00000000    
   6.77499920E-02  0.766036808       0.00000000    
   6.13583215E-02  0.838567019       0.00000000    
   6.40317723E-02  0.775774896       0.00000000    
   7.84918517E-02  0.813643813       0.00000000    
  0.189456582      0.900163651       0.00000000    
  0.220835492      0.958686590       0.00000000    
   6.96775019E-02  0.877698898       0.00000000    
   5.36596589E-02  0.895056009       0.00000000    
   5.92559092E-02  0.941272557       0.00000000    
   7.56521448E-02  0.953967631       0.00000000    
  0.115063481      0.886425853       0.00000000    
  0.121561043      0.931382716       0.00000000    
  0.370206386      0.961676419       0.00000000    
  0.259915501      0.933630884       0.00000000    
  0.148231819      0.946356535       0.00000000    
  0.183644012      0.928750217       0.00000000    
  0.218776062      0.762393653       0.00000000    
  0.118460938      0.817901611       0.00000000    
  0.260802865      0.777421355       0.00000000    
  0.231081054      0.882811427       0.00000000    
  0.175688833      0.721425056       0.00000000    
  0.208950743      0.731701553       0.00000000    
  0.139326438      0.863097787       0.00000000    
  0.158844844      0.864414573       0.00000000    
  0.194813654      0.824046075       0.00000000    
  0.186938912      0.798472583       0.00000000    
  0.649900138      0.901869237       0.00000000    
  0.259657532      0.903087556       0.00000000    
  0.271557957      0.701665401       0.00000000    
  0.274993926      0.769140184       0.00000000    
  0.425135374      0.538193107       0.00000000    
  0.410145551      0.503391862       0.00000000    
  0.328143120      0.821339130       0.00000000    
  0.332242370      0.901369452       0.00000000    
  0.297994137      0.880161583       0.00000000    
  0.296802104      0.844994366       0.00000000    
  0.294952214      0.958595097       0.00000000    
  0.330760211      0.935036063       0.00000000    
  0.447459817      0.962353230       0.00000000    
  0.676977158      0.953063309       0.00000000    
  0.367622375      0.841758072       0.00000000    
  0.361986399      0.884180248       0.00000000    
  0.896815002      0.643963933       0.00000000    
  0.387090564      0.832010329       0.00000000    
  0.586015284      0.555594862       0.00000000    
  0.404276639      0.934161365       0.00000000    
  0.404359043      0.909058809       0.00000000    
  0.334967941      0.723907351       0.00000000    
  0.386822015      0.768596649       0.00000000    
  0.432856768      0.857096314       0.00000000    
  0.460664272      0.830328226       0.00000000    
  0.399981767      0.790013373       0.00000000    
  0.452504754      0.733189344       0.00000000    
  0.448538333      0.791871130       0.00000000    
  0.465137988      0.767564118       0.00000000    
  0.472026587      0.704523563       0.00000000    
  0.717197895      0.673934340       0.00000000    
  0.357476801      0.631079078       0.00000000    
  0.458333760      0.669676125       0.00000000    
  0.342002839      0.597504258       0.00000000    
  0.413888216      0.666352749       0.00000000    
  0.295768261      0.659535885       0.00000000    
  0.287346274      0.724737346       0.00000000    
  0.399309665      0.634758055       0.00000000    
  0.336356610      0.663569450       0.00000000    
  0.351054996      0.764002800       0.00000000    
  0.351533920      0.697152972       0.00000000    
  0.409401655      0.728381038       0.00000000    
  0.394697309      0.699432015       0.00000000    
  0.225220680      0.586143434       0.00000000    
  0.244315609      0.625921726       0.00000000    
  0.363286495      0.565611541       0.00000000    
  0.302389026      0.593985140       0.00000000    
  0.430081099      0.473851353       0.00000000    
  0.472615778      0.477364391       0.00000000    
  0.306815863      0.528065979       0.00000000    
  0.285462320      0.559210062       0.00000000    
  0.597356796      0.429834694       0.00000000    
  0.639534593      0.662218988       0.00000000    
  0.368301660      0.500097752       0.00000000    
  0.347694665      0.531117082       0.00000000    
  0.419620991      0.602638066       0.00000000    
  0.404693305      0.569105387       0.00000000    
  0.528659523      0.512549698       0.00000000    
  0.467279553      0.541684687       0.00000000    
  0.477123588      0.641089916       0.00000000    
  0.462605745      0.606126666       0.00000000    
  0.482507825      0.576098204       0.00000000    
  0.543848038      0.552977383       0.00000000    
  0.534948885      0.682532489       0.00000000    
  0.524639547      0.579082489       0.00000000    
  0.952691019      0.678558230       0.00000000    
  0.662160456      0.570386767       0.00000000    
  0.769227922      0.412032545       0.00000000    
  0.709551334      0.509685397       0.00000000    
  0.582392693      0.620643497       0.00000000    
  0.659058392      0.635249853       0.00000000    
  0.601625502      0.593566895       0.00000000    
  0.643595636      0.595873654       0.00000000    
  0.695974827      0.704182982       0.00000000    
  0.494320154      0.837994218       0.00000000    
  0.603569269      0.961247206       0.00000000    
  0.515854895      0.708671153       0.00000000    
  0.521561921      0.809710026       0.00000000    
  0.558271050      0.818147421       0.00000000    
  0.654855013      0.700943410       0.00000000    
  0.520787179      0.644117057       0.00000000    
  0.539483249      0.618002713       0.00000000    
  0.578065515      0.685898483       0.00000000    
  0.597483456      0.659412265       0.00000000    
  0.584343016      0.788591444       0.00000000    
  0.655548036      0.937493026       0.00000000    
  0.509195745      0.771961272       0.00000000    
  0.528785884      0.746269107       0.00000000    
  0.634207428      0.728789270       0.00000000    
  0.648655355      0.766517520       0.00000000    
  0.592302740      0.724853218       0.00000000    
  0.571966410      0.751277626       0.00000000    
  0.477604270      0.905404866       0.00000000    
  0.479823858      0.933733165       0.00000000    
  0.524486244      0.956491768       0.00000000    
  0.947503805      0.815309286       0.00000000    
  0.569488525      0.852484226       0.00000000    
  0.536933243      0.884510159       0.00000000    
  0.555622399      0.927674532       0.00000000    
  0.579121530      0.931000650       0.00000000    
  0.704217315      0.810462475       0.00000000    
  0.748176932      0.953836441       0.00000000    
  0.929116130      0.786761999       0.00000000    
  0.950367272      0.748071432       0.00000000    
  0.606302917      0.864771903       0.00000000    
  0.613733172      0.884966135       0.00000000    
  0.625055313      0.796940863       0.00000000    
  0.635293901      0.827251077       0.00000000    
  0.712091982      0.741659820       0.00000000    
  0.689301729      0.771495044       0.00000000    
  0.686475217      0.872885168       0.00000000    
  0.679113090      0.839785874       0.00000000    
  0.877496660      0.934020340       0.00000000    
  0.745278537      0.816086590       0.00000000    
  0.721103251      0.607152462       0.00000000    
  0.751821518      0.745531917       0.00000000    
  0.766904891      0.773445427       0.00000000    
  0.817071557      0.949857414       0.00000000    
  0.826162696      0.813740730       0.00000000    
  0.811450124      0.777441919       0.00000000    
  0.718087077      0.933728039       0.00000000    
  0.719220936      0.889202118       0.00000000    
  0.821144581      0.875383258       0.00000000    
  0.810447633      0.837653399       0.00000000    
  0.746101558      0.876044214       0.00000000    
  0.757065415      0.835668504       0.00000000    
  0.790396810      0.928714871       0.00000000    
  0.789776087      0.905382097       0.00000000    
  0.859586596      0.886596441       0.00000000    
  0.870423853      0.929402590       0.00000000    
  0.874009907      0.679586530       0.00000000    
  0.927241564      0.925977170       0.00000000    
  0.942992985      0.942263186       0.00000000    
  0.887497246      0.856249571       0.00000000    
  0.869970620      0.815474033       0.00000000    
  0.890660405      0.785564840       0.00000000    
  0.937915623      0.879047632       0.00000000    
  0.925982356      0.861304462       0.00000000    
  0.931608200      0.645117700       0.00000000    
  0.930456519      0.715909660       0.00000000    
  0.757308900      0.676831365       0.00000000    
  0.836267412      0.677754581       0.00000000    
  0.818151414      0.644158125       0.00000000    
  0.773957372      0.708653271       0.00000000    
  0.700913787      0.637799323       0.00000000    
  0.871699214      0.748281777       0.00000000    
  0.893646657      0.714722395       0.00000000    
  0.705208361      0.572681189       0.00000000    
  0.783083200      0.574115753       0.00000000    
  0.831650138      0.746294081       0.00000000    
  0.814691544      0.711552083       0.00000000    
  0.766447604      0.543979526       0.00000000    
  0.724443436      0.541431427       0.00000000    
  0.904232800      0.426500171       0.00000000    
  0.559076130      0.304745257       0.00000000    
  0.778949916      0.641714990       0.00000000    
  0.761965990      0.609693527       0.00000000    
  0.957696140      0.534604430       0.00000000    
  0.900285542      0.572502613       0.00000000    
  0.879239023      0.540094435       0.00000000    
  0.821894765      0.576452434       0.00000000    
  0.728015006      0.476632029       0.00000000    
  0.786864698      0.506619573       0.00000000    
  0.844419241      0.538311779       0.00000000    
  0.955081224      0.607445419       0.00000000    
  0.932595253      0.573627949       0.00000000    
  0.876508057      0.610143602       0.00000000    
  0.840430319      0.608329713       0.00000000    
  0.938450992      0.178900525       0.00000000    
  0.903840899      0.499974191       0.00000000    
  0.933029592      0.500528514       0.00000000    
  0.783854842      0.376071423       0.00000000    
  0.880693078      0.468548298       0.00000000    
  0.959416568      0.459872782       0.00000000    
  0.933100462      0.426147610       0.00000000    
  0.514605105      0.364966899       0.00000000    
  0.586844265      0.329718173       0.00000000    
  0.806666672      0.303289533       0.00000000    
  0.833812237      0.334858060       0.00000000    
  0.958916187      0.383680373       0.00000000    
  0.874414384      0.325277448       0.00000000    
  0.932924867      0.352230728       0.00000000    
  0.954172671      0.307577819       0.00000000    
  0.880016208      0.396582663       0.00000000    
  0.899007976      0.354487032       0.00000000    
  0.683171630      0.102368183       0.00000000    
  0.772411644      0.174187794       0.00000000    
  0.767875671      0.313235939       0.00000000    
  0.825960279      0.509026408       0.00000000    
  0.938201129       5.46697453E-02   0.00000000    
  0.845415413      0.398938507       0.00000000    
  0.821541965      0.369673461       0.00000000    
  0.847978890      0.468325824       0.00000000    
  0.826544940      0.439553946       0.00000000    
  0.771375775      0.480181485       0.00000000    
  0.790757298      0.440629244       0.00000000    
  0.476549178      0.412686676       0.00000000    
  0.667869151      0.445355982       0.00000000    
  0.663906157      0.400567949       0.00000000    
  0.605940998      0.526962757       0.00000000    
  0.651871741      0.462097913       0.00000000    
  0.488335937      0.509456992       0.00000000    
  0.733359456      0.415637672       0.00000000    
  0.716136873      0.451937824       0.00000000    
  0.647233725      0.529307723       0.00000000    
  0.664556980      0.507104158       0.00000000    
  0.494106799      0.441072077       0.00000000    
  0.548084795      0.488090903       0.00000000    
  0.590020776      0.491127580       0.00000000    
  0.611673057      0.458184808       0.00000000    
  0.548354268      0.425943226       0.00000000    
  0.533380985      0.442847252       0.00000000    
  0.542397976      0.380333900       0.00000000    
  0.522803664      0.135686696       0.00000000    
  0.647168279       4.59265336E-02   0.00000000    
  0.626080871      0.315731466       0.00000000    
  0.614698529      0.392510027       0.00000000    
  0.581526458      0.361619025       0.00000000    
  0.495326877      0.295773923       0.00000000    
  0.521681726      0.316327244       0.00000000    
  0.540039062      0.241709635       0.00000000    
  0.658927143      0.209839076       0.00000000    
  0.758345485      0.345323712       0.00000000    
  0.652119756      0.339782029       0.00000000    
  0.692485332      0.329491258       0.00000000    
  0.643543422      0.385692269       0.00000000    
  0.716565132      0.356792510       0.00000000    
  0.709737659      0.385560989       0.00000000    
  0.781149745      0.131515980       0.00000000    
  0.742119789      0.284352988       0.00000000    
  0.632644534      0.281987399       0.00000000    
  0.700743556      0.295237035       0.00000000    
  0.676191807      0.268278748       0.00000000    
  0.682483613      0.235483810       0.00000000    
  0.566588581      0.265009940       0.00000000    
  0.613630354      0.224221006       0.00000000    
  0.476540416      0.237512380       0.00000000    
  0.497745514      0.254878193       0.00000000    
  0.585602760      0.186895847       0.00000000    
  0.486810267      0.115653396       0.00000000    
  0.519240379      0.178130060       0.00000000    
  0.546616554      0.199252784       0.00000000    
  0.518832624       5.61387725E-02   0.00000000    
  0.573922217      0.125546962       0.00000000    
  0.593015373      0.168101460       0.00000000    
  0.554412723      0.118734904       0.00000000    
  0.546507657       6.83637932E-02   0.00000000    
  0.890348613       5.45507707E-02   0.00000000    
  0.646988690      0.119968548       0.00000000    
  0.663941622      0.176797003       0.00000000    
  0.643474400      0.154994696       0.00000000    
  0.614203095       6.78939745E-02   0.00000000    
  0.615660846       9.69313234E-02   0.00000000    
  0.685784519       6.76049739E-02   0.00000000    
  0.829413176       7.40224123E-02   0.00000000    
  0.752910435      0.108695321       0.00000000    
  0.966932476      0.227343783       0.00000000    
  0.818167746      0.269223720       0.00000000    
  0.710947990       5.11755161E-02   0.00000000    
  0.755292714       6.99968040E-02   0.00000000    
  0.823693812       6.68487027E-02   0.00000000    
  0.816082597      0.121703438       0.00000000    
  0.772925913       5.67164458E-02   0.00000000    
  0.789502203      0.239026651       0.00000000    
  0.733067334      0.185363188       0.00000000    
  0.709295273      0.162833825       0.00000000    
  0.713259339      0.125916615       0.00000000    
  0.927714646      0.277660608       0.00000000    
  0.846892416      0.149961993       0.00000000    
  0.751344442      0.248852238       0.00000000    
  0.726132691      0.222737715       0.00000000    
  0.801329494      0.200149402       0.00000000    
  0.883024096      0.294468701       0.00000000    
  0.931188643      0.254866689       0.00000000    
  0.852444589      0.260205716       0.00000000    
  0.906427562      0.183256269       0.00000000    
  0.830719113      0.192326978       0.00000000    
  0.877646744      0.143931821       0.00000000    
  0.867067337      0.224139839       0.00000000    
  0.888189793      0.217646107       0.00000000    
  0.874092758       7.53691271E-02   0.00000000    
  0.892968118      0.117105007       0.00000000    
  0.958830357      0.149507031       0.00000000    
  0.935293734      0.114106901       0.00000000    
  0.953858554       7.43817165E-02   0.00000000    
   6.11281916E-02   0.00000000       0.00000000    
  0.131886512      -6.93889390E-18   0.00000000    
  0.195818990       0.00000000       0.00000000    
  0.261119485       0.00000000       0.00000000    
  0.326371819       6.93889390E-18   0.00000000    
  0.391820848       0.00000000       0.00000000    
  0.456548721       0.00000000       0.00000000    
  0.517474830      -6.93889390E-18   0.00000000    
  0.581002653       0.00000000       0.00000000    
  0.647173524       0.00000000       0.00000000    
  0.712682664       0.00000000       0.00000000    
  0.771728337       0.00000000       0.00000000    
  0.834709704       1.38777878E-17   0.00000000    
  0.877570927      -6.93889390E-18   0.00000000    
  0.949403644       0.00000000       0.00000000    
   1.00000000       0.00000000       0.00000000    
   1.00000000       7.41467848E-02   0.00000000    
   1.00000000      0.147986412       0.00000000    
   1.00000000      0.229882777       0.00000000    
   1.00000000      0.305764079       0.00000000    
   1.00000000      0.383350998       0.00000000    
   1.00000000      0.459945410       0.00000000    
   1.00000000      0.534935534       0.00000000    
   1.00000000      0.607958972       0.00000000    
   1.00000000      0.679113150       0.00000000    
   1.00000000      0.748675406       0.00000000    
   1.00000000      0.816851676       0.00000000    
   1.00000000      0.880526364       0.00000000    
   1.00000000      0.938190222       0.00000000    
   1.00000000       1.00000000       0.00000000    
  0.936745465       1.00000000       0.00000000    
  0.883379519       1.00000000       0.00000000    
  0.817303419       1.00000000       0.00000000    
  0.749273717       1.00000000       0.00000000    
  0.678624928       1.00000000       0.00000000    
  0.600900590       1.00000000       0.00000000    
  0.526862323       1.00000000       0.00000000    
  0.447779357       1.00000000       0.00000000    
  0.370138764       1.00000000       0.00000000    
  0.294593245       1.00000000       0.00000000    
  0.219182312       1.00000000       0.00000000    
  0.148596406       1.00000000       0.00000000    
   7.81055242E-02   1.00000000       0.00000000    
   0.00000000       1.00000000       0.00000000    
   0.00000000      0.955578268       0.00000000    
  -6.93889390E-18  0.889725804       0.00000000    
   6.93889390E-18  0.833132207       0.00000000    
   0.00000000      0.785522521       0.00000000    
  -6.93889390E-18  0.721190989       0.00000000    
   6.93889390E-18  0.657293439       0.00000000    
   1.38777878E-17  0.595490694       0.00000000    
  -6.93889390E-18  0.532925129       0.00000000    
   0.00000000      0.469721287       0.00000000    
   6.93889390E-18  0.406685621       0.00000000    
   1.38777878E-17  0.343977451       0.00000000    
   6.93889390E-18  0.280000627       0.00000000    
   0.00000000      0.210934341       0.00000000    
   0.00000000      0.144507349       0.00000000    
  -6.93889390E-18   7.00759441E-02   0.00000000    
   0.00000000       0.00000000       0.00000000    

LINES 60 180
           2         454         455
           2         455         456
           2         456         457
           2         457         458
           2         458         459
           2         459         460
           2         460         461
           2         461         462
           2         462         463
           2         463         464
           2         464         465
           2         465         466
           2         466         467
           2         467         468
           2         468         469
           2         469         470
           2         470         471
           2         471         472
           2         472         473
           2         473         474
           2         474         475
           2         475         476
           2         476         477
           2         477         478
           2         478         479
           2         479         480
           2         480         481
           2         481         482
           2         482         483
           2         483         484
           2         484         485
           2         485         486
           2         486         487
           2         487         488
           2         488         489
           2         489         490
           2         490         491
           2         491         492
           2         492         493
           2         493         494
           2         494         495
           2         495         496
           2         496         497
           2         497         498
           2         498         499
           2         499         500
           2         500         501
           2         501         502
           2         502         503
           2         503         504
           2         504         505
           2         505         506
           2         506         507
           2         507         508
           2         508         509
           2         509         510
           2         510         511
           2         511         512
           2         512         513
           2         513         454

CELL_DATA 60
SCALARS tags int 1
LOOKUP_TABLE default
           1
           1
           1
           1
           1
           1
           1
           1
           1
           1
           1
           1
           1
           1
           1
           2
           2
           2
           2
           2
           2
           2
           2
           2
           2
           2
           2
           2
           2
           3
           3
           3
           3
           3
           3
           3
           3
           3
           3
           3
           3
           3
           3
           4
           4
           4
           4
           4
           4
           4
           4
           4
           4
           4
           4
           4
           4
           4
           4
           1
