# vtk DataFile Version 3.0
out.vtk
ASCII
DATASET POLYDATA

POINTS 8194 float
   4.14953046E-02   4.59620990E-02   0.00000000    
   8.77483934E-02   1.04300929E-02   0.00000000    
   1.60881225E-02   1.50021994E-02   0.00000000    
   1.80898439E-02   1.74943320E-02   0.00000000    
   1.27848964E-02   4.72483151E-02   0.00000000    
   2.63631195E-02   1.86598189E-02   0.00000000    
   3.16303410E-02   2.93563325E-02   0.00000000    
   1.28190834E-02   3.05580702E-02   0.00000000    
   1.08375596E-02  0.116778016       0.00000000    
   1.77017041E-02   3.70930694E-02   0.00000000    
   2.71647815E-02   3.68562490E-02   0.00000000    
   3.29975970E-02   8.16235468E-02   0.00000000    
   3.26104872E-02   4.58146632E-02   0.00000000    
  0.102724224      0.144948080       0.00000000    
   1.78116560E-02   5.49343266E-02   0.00000000    
   2.70862933E-02   5.49426898E-02   0.00000000    
  0.106558450       3.22959349E-02   0.00000000    
   6.09303676E-02   4.59568240E-02   0.00000000    
  0.234769076      0.101649374       0.00000000    
  0.124641381      0.101716921       0.00000000    
   4.71097939E-02   5.39225303E-02   0.00000000    
   5.60079589E-02   5.36677837E-02   0.00000000    
   6.93936795E-02   1.10352542E-02   0.00000000    
   4.28603552E-02   2.85950229E-02   0.00000000    
   4.77617942E-02   3.47276255E-02   0.00000000    
   5.50169498E-02   3.51031832E-02   0.00000000    
   3.42674367E-02   1.13991145E-02   0.00000000    
   4.57758419E-02   1.72775704E-02   0.00000000    
   5.14917672E-02   1.43497754E-02   0.00000000    
   6.20034523E-02   2.76537072E-02   0.00000000    
   5.96395694E-02   1.80187970E-02   0.00000000    
  0.167759731       1.69284418E-02   0.00000000    
   1.28472755E-02   8.15776065E-02   0.00000000    
   5.71489744E-02   7.12637678E-02   0.00000000    
   7.90500492E-02   1.73549522E-02   0.00000000    
   7.10084811E-02   4.54162806E-02   0.00000000    
   8.99759978E-02   2.98186094E-02   0.00000000    
   7.14559630E-02   3.01330164E-02   0.00000000    
   7.92266801E-02   2.24996302E-02   0.00000000    
   9.79139879E-02   1.66846365E-02   0.00000000    
   9.69591662E-02   2.62957681E-02   0.00000000    
  0.247682348      0.234601915       0.00000000    
   8.08685049E-02  0.110970050       0.00000000    
  0.288974494       2.58175656E-02   0.00000000    
  0.115261108       2.52196547E-02   0.00000000    
  0.105707034       1.19476784E-02   0.00000000    
  0.114916384       1.73385851E-02   0.00000000    
   1.68165080E-02  0.126334786       0.00000000    
  0.106967673       3.75805385E-02   0.00000000    
  0.101915270       6.13445304E-02   0.00000000    
   7.44864196E-02   3.97555046E-02   0.00000000    
  0.125328794       3.07380203E-02   0.00000000    
  0.119247720       4.44764197E-02   0.00000000    
  0.116867237       5.38033880E-02   0.00000000    
  0.121203907       5.98215610E-02   0.00000000    
  0.100176677       4.55219857E-02   0.00000000    
  0.104894146       5.53931855E-02   0.00000000    
   8.75725821E-02   3.94568220E-02   0.00000000    
   9.10283551E-02   4.47333530E-02   0.00000000    
   7.58240819E-02   5.52342609E-02   0.00000000    
   8.60978365E-02   5.48767298E-02   0.00000000    
   9.15029049E-02   6.30772412E-02   0.00000000    
   8.11902806E-02   8.79983008E-02   0.00000000    
  0.124846593       7.83375055E-02   0.00000000    
   8.85548294E-02   6.99069574E-02   0.00000000    
   9.17765498E-02   8.57921317E-02   0.00000000    
   6.16420172E-02   6.30247593E-02   0.00000000    
   7.16767460E-02   6.23957850E-02   0.00000000    
  0.116872534       6.95828497E-02   0.00000000    
  0.108106084       7.12848976E-02   0.00000000    
  0.105094731       7.74255246E-02   0.00000000    
   9.46490243E-02   7.95576647E-02   0.00000000    
  0.115871564      0.119149074       0.00000000    
  0.111301854       8.76683816E-02   0.00000000    
   9.78817642E-02   9.56011266E-02   0.00000000    
  0.108922102       9.34303328E-02   0.00000000    
   5.25323749E-02  0.111593708       0.00000000    
   2.80348957E-02   9.02353600E-02   0.00000000    
  0.237131894      0.117977880       0.00000000    
  0.148396522      0.221471459       0.00000000    
  0.114509098      0.102509551       0.00000000    
  0.110461019      0.110506222       0.00000000    
   9.47987884E-02  0.102271147       0.00000000    
  0.100482486      0.111350715       0.00000000    
   7.83118531E-02   9.38490704E-02   0.00000000    
   8.45138356E-02  0.103881665       0.00000000    
   1.22643653E-02  0.289851964       0.00000000    
   7.16407374E-02  0.112183243       0.00000000    
   9.63112265E-02  0.119364843       0.00000000    
   8.67805630E-02  0.120151125       0.00000000    
   1.75675303E-02   8.98915306E-02   0.00000000    
   4.74312566E-02   7.18056634E-02   0.00000000    
   2.46502813E-02  0.126260042       0.00000000    
   5.68499342E-02  0.104097903       0.00000000    
   1.68386288E-02  0.144224808       0.00000000    
   7.37196803E-02  0.145761713       0.00000000    
   6.74007609E-02  0.120031066       0.00000000    
   5.79389296E-02  0.120688729       0.00000000    
   7.71808475E-02   7.22765103E-02   0.00000000    
   7.49713108E-02   7.73725584E-02   0.00000000    
   6.84214607E-02   9.58988070E-02   0.00000000    
   6.50078207E-02  0.102540933       0.00000000    
   4.89901677E-02   9.03533995E-02   0.00000000    
   4.83929142E-02   9.30382609E-02   0.00000000    
   6.30647242E-02   8.06841701E-02   0.00000000    
   6.15080148E-02   8.51961598E-02   0.00000000    
   4.32623848E-02  0.112076029       0.00000000    
   5.35340346E-02  0.128283679       0.00000000    
   2.74847150E-02   7.25948438E-02   0.00000000    
   4.26868089E-02   8.12311396E-02   0.00000000    
   3.26307192E-02   6.37636930E-02   0.00000000    
   4.18222025E-02   6.35589883E-02   0.00000000    
   1.26701202E-02   6.43452629E-02   0.00000000    
   1.78027712E-02   7.27559775E-02   0.00000000    
   3.79966609E-02  0.100291088       0.00000000    
   3.27290222E-02   9.91713703E-02   0.00000000    
   2.43925285E-02  0.108230829       0.00000000    
   3.85964103E-02  0.118309073       0.00000000    
   3.02864928E-02  0.118458293       0.00000000    
   1.23369535E-02   9.89373103E-02   0.00000000    
   1.75464377E-02  0.107605733       0.00000000    
  0.259624213      0.273693383       0.00000000    
   1.09918248E-02  0.134762764       0.00000000    
   4.57296334E-02  0.179517314       0.00000000    
   3.09002474E-02  0.153490573       0.00000000    
   4.47476022E-02  0.145569965       0.00000000    
  0.111547284      0.127485454       0.00000000    
   3.04739829E-02  0.136147648       0.00000000    
   2.52910182E-02  0.144034415       0.00000000    
   2.64523663E-02  0.196146280       0.00000000    
   8.23739916E-02  0.128285110       0.00000000    
   4.39691804E-02  0.128734589       0.00000000    
   3.93153988E-02  0.135819778       0.00000000    
   5.87961562E-02  0.137417406       0.00000000    
   5.42298406E-02  0.145192653       0.00000000    
   9.01359841E-02  0.240022689       0.00000000    
   7.47754872E-02  0.179693282       0.00000000    
   7.00533390E-02  0.205124989       0.00000000    
   5.52339666E-02  0.179327905       0.00000000    
   6.00164123E-02  0.171195462       0.00000000    
   8.85983482E-02  0.153986350       0.00000000    
   5.95073439E-02  0.154294804       0.00000000    
   5.48316799E-02  0.162239805       0.00000000    
   1.14026498E-02  0.152563065       0.00000000    
   3.99817117E-02  0.153211579       0.00000000    
   4.53291982E-02  0.162519038       0.00000000    
   4.04870026E-02  0.170499086       0.00000000    
   3.12280674E-02  0.170699164       0.00000000    
   1.17156729E-02  0.170093179       0.00000000    
   1.69532634E-02  0.161730245       0.00000000    
   2.58316360E-02  0.161573917       0.00000000    
   2.67550051E-02  0.247407988       0.00000000    
   1.19220829E-02  0.187428132       0.00000000    
   2.62091830E-02  0.178924412       0.00000000    
   1.70449503E-02  0.179032907       0.00000000    
   1.71441194E-02  0.213326558       0.00000000    
   1.21286614E-02  0.221762002       0.00000000    
   1.71066038E-02  0.196215928       0.00000000    
   1.20512601E-02  0.204635888       0.00000000    
   4.08326536E-02  0.187700465       0.00000000    
   3.14470008E-02  0.187831730       0.00000000    
  0.103309207      0.215569034       0.00000000    
   4.10488136E-02  0.204839423       0.00000000    
   3.15841287E-02  0.204919919       0.00000000    
   2.66008079E-02  0.213284895       0.00000000    
   4.62257527E-02  0.230653137       0.00000000    
   4.12710942E-02  0.238983825       0.00000000    
   3.16632912E-02  0.221980244       0.00000000    
   3.17090228E-02  0.239019364       0.00000000    
   1.21771647E-02  0.238834247       0.00000000    
   1.71654169E-02  0.230393320       0.00000000    
   2.66890302E-02  0.230367616       0.00000000    
   6.06013685E-02  0.205200791       0.00000000    
   4.59864587E-02  0.196546331       0.00000000    
  0.131758139      0.274498522       0.00000000    
  0.126808420      0.135338932       0.00000000    
   6.07781857E-02  0.239409968       0.00000000    
   5.61099090E-02  0.264541805       0.00000000    
   6.07366189E-02  0.222323775       0.00000000    
   8.50412026E-02  0.230956718       0.00000000    
   5.57378158E-02  0.230605900       0.00000000    
   4.11803424E-02  0.221933097       0.00000000    
   6.03758842E-02  0.188155502       0.00000000    
   5.54890037E-02  0.196429163       0.00000000    
   4.61411886E-02  0.213597998       0.00000000    
   5.56351878E-02  0.213528022       0.00000000    
   8.97548869E-02  0.205475926       0.00000000    
   8.93151984E-02  0.171215266       0.00000000    
  0.100198396      0.239673540       0.00000000    
   7.00443164E-02  0.222275391       0.00000000    
[...]
CELL_DATA 236
SCALARS tags int 1
LOOKUP_TABLE default
           1
           1
           1
           1
           1
           1
           1
           1
           1
           1
           1
           1
           1
           1
           1
           1
           1
           1
           1
           1
           1
           1
           1
           1
           1
           1
           1
           1
           1
           1
           1
           1
           1
           1
           1
           1
           1
           1
           1
           1
           1
           1
           1
           1
           1
           1
           1
           1
           1
           1
           1
           1
           1
           1
           1
           1
           2
           2
           2
           2
           2
           2
           2
           2
           2
           2
           2
           2
           2
           2
           2
           2
           2
           2
           2
           2
           2
           2
           2
           2
           2
           2
           2
           2
           2
           2
           2
           2
           2
           2
           2
           2
           2
           2
           2
           2
           2
           2
           2
           2
           2
           2
           2
           2
           2
           2
           2
           2
           2
           2
           2
           2
           2
           2
           3
           3
           3
           3
           3
           3
           3
           3
           3
           3
           3
           3
           3
           3
           3
           3
           3
           3
           3
           3
           3
           3
           3
           3
           3
           3
           3
           3
           3
           3
           3
           3
           3
           3
           3
           3
           3
           3
           3
           3
           3
           3
           3
           3
           3
           3
           3
           3
           3
           3
           3
           3
           3
           3
           3
           3
           3
           3
           3
           3
           3
           4
           4
           4
           4
           4
           4
           4
           4
           4
           4
           4
           4
           4
           4
           4
           4
           4
           4
           4
           4
           4
           4
           4
           4
           4
           4
           4
           4
           4
           4
           4
           4
           4
           4
           4
           4
           4
           4
           4
           4
           4
           4
           4
           4
           4
           4
           4
           4
           4
           4
           4
           4
           4
           4
           4
           4
           4
           4
           4
           4
           1
