# vtk DataFile Version 3.0
Voronoi Diagram Export
ASCII
DATASET POLYDATA
POINTS 88 double
      0.5000000000      0.5000000000   0.0
      1.5000000000      0.5000000000   0.0
      2.5000000000      0.5000000000   0.0
      3.5000000000      0.5000000000   0.0
      4.5000000000      0.5000000000   0.0
      5.5000000000      0.5000000000   0.0
      6.5000000000      0.5000000000   0.0
      7.5000000000      0.5000000000   0.0
      8.5000000000      0.5000000000   0.0
      0.5000000000      1.5000000000   0.0
      1.5000000000      1.5000000000   0.0
      2.5000000000      1.5000000000   0.0
      3.5000000000      1.5000000000   0.0
      4.5000000000      1.5000000000   0.0
      5.5000000000      1.5000000000   0.0
      6.5000000000      1.5000000000   0.0
      7.5000000000      1.5000000000   0.0
      8.5000000000      1.5000000000   0.0
      0.5000000000      2.5000000000   0.0
      1.5000000000      2.5000000000   0.0
      2.5000000000      2.5000000000   0.0
      3.5000000000      2.5000000000   0.0
      4.5000000000      2.5000000000   0.0
      5.5000000000      2.5000000000   0.0
      6.5000000000      2.5000000000   0.0
      7.5000000000      2.5000000000   0.0
      8.5000000000      2.5000000000   0.0
      0.5000000000      3.5000000000   0.0
      1.5000000000      3.5000000000   0.0
      2.5000000000      3.5000000000   0.0
      3.5000000000      3.5000000000   0.0
      4.5000000000      3.5000000000   0.0
      5.5000000000      3.5000000000   0.0
      6.5000000000      3.5000000000   0.0
      7.5000000000      3.5000000000   0.0
      8.5000000000      3.5000000000   0.0
      0.0000000000      0.5000000000   0.0
      0.5000000000      0.0000000000   0.0
      1.5000000000      0.0000000000   0.0
      2.5000000000      0.0000000000   0.0
      3.5000000000      0.0000000000   0.0
      4.5000000000      0.0000000000   0.0
      5.5000000000      0.0000000000   0.0
      6.5000000000      0.0000000000   0.0
      7.5000000000      0.0000000000   0.0
      8.5000000000      0.0000000000   0.0
      9.0000000000      0.5000000000   0.0
      0.0000000000      1.5000000000   0.0
      9.0000000000      1.5000000000   0.0
      0.0000000000      2.5000000000   0.0
      9.0000000000      2.5000000000   0.0
      0.5000000000      4.0000000000   0.0
      0.0000000000      3.5000000000   0.0
      1.5000000000      4.0000000000   0.0
      2.5000000000      4.0000000000   0.0
      3.5000000000      4.0000000000   0.0
      4.5000000000      4.0000000000   0.0
      5.5000000000      4.0000000000   0.0
      6.5000000000      4.0000000000   0.0
      7.5000000000      4.0000000000   0.0
      8.5000000000      4.0000000000   0.0
      9.0000000000      3.5000000000   0.0
      0.0000000000      0.0000000000   0.0
      1.0000000000      0.0000000000   0.0
      2.0000000000      0.0000000000   0.0
      3.0000000000      0.0000000000   0.0
      4.0000000000      0.0000000000   0.0
      5.0000000000      0.0000000000   0.0
      6.0000000000      0.0000000000   0.0
      7.0000000000      0.0000000000   0.0
      8.0000000000      0.0000000000   0.0
      9.0000000000      0.0000000000   0.0
      0.0000000000      1.0000000000   0.0
      9.0000000000      1.0000000000   0.0
      0.0000000000      2.0000000000   0.0
      9.0000000000      2.0000000000   0.0
      0.0000000000      3.0000000000   0.0
      9.0000000000      3.0000000000   0.0
      0.0000000000      4.0000000000   0.0
      1.0000000000      4.0000000000   0.0
      2.0000000000      4.0000000000   0.0
      3.0000000000      4.0000000000   0.0
      4.0000000000      4.0000000000   0.0
      5.0000000000      4.0000000000   0.0
      6.0000000000      4.0000000000   0.0
      7.0000000000      4.0000000000   0.0
      8.0000000000      4.0000000000   0.0
      9.0000000000      4.0000000000   0.0
POLYGONS 50 272
  4    36    62    37     0
  5     0    37    63    38     1
  5     1    38    64    39     2
  5     2    39    65    40     3
  5     3    40    66    41     4
  5     4    41    67    42     5
  5     5    42    68    43     6
  5     6    43    69    44     7
  5     7    44    70    45     8
  4     8    45    71    46
  5    36     0     9    47    72
  4     0     1    10     9
  4     1     2    11    10
  4     2     3    12    11
  4     3     4    13    12
  4     4     5    14    13
  4     5     6    15    14
  4     6     7    16    15
  4     7     8    17    16
  5     8    46    73    48    17
  5    47     9    18    49    74
  4     9    10    19    18
  4    10    11    20    19
  4    11    12    21    20
  4    12    13    22    21
  4    13    14    23    22
  4    14    15    24    23
  4    15    16    25    24
  4    16    17    26    25
  5    17    48    75    50    26
  5    49    18    27    52    76
  4    18    19    28    27
  4    19    20    29    28
  4    20    21    30    29
  4    21    22    31    30
  4    22    23    32    31
  4    23    24    33    32
  4    24    25    34    33
  4    25    26    35    34
  5    26    50    77    61    35
  4    52    27    51    78
  5    27    28    53    79    51
  5    28    29    54    80    53
  5    29    30    55    81    54
  5    30    31    56    82    55
  5    31    32    57    83    56
  5    32    33    58    84    57
  5    33    34    59    85    58
  5    34    35    60    86    59
  4    35    61    87    60
CELL_DATA 50
SCALARS voronoi_values double 1
LOOKUP_TABLE default
  2.0
  2.0
  2.0
  2.0
  2.0
  2.0
  2.0
  2.0
  2.0
  2.0
  2.0
  2.0
  2.0
  2.0
  2.0
  2.0
  2.0
  2.0
  2.0
  2.0
  2.0
  2.0
  2.0
  2.0
  2.0
  2.0
  2.0
  2.0
  2.0
  2.0
  2.0
  2.0
  2.0
  2.0
  2.0
  2.0
  2.0
  2.0
  2.0
  2.0
  2.0
  2.0
  2.0
  2.0
  2.0
  2.0
  2.0
  2.0
  2.0
  2.0
