# vtk DataFile Version 3.0
Voronoi Diagram Export
ASCII
DATASET POLYDATA
POINTS 20 double
      0.5000000000      0.5000000000   0.0
      0.5000000000      1.5000000000   0.0
      1.5000000000      0.5000000000   0.0
      1.5000000000      1.5000000000   0.0
      0.0000000000      0.5000000000   0.0
      0.5000000000      0.0000000000   0.0
      0.5000000000      2.0000000000   0.0
      0.0000000000      1.5000000000   0.0
      1.5000000000      0.0000000000   0.0
      2.0000000000      0.5000000000   0.0
      1.5000000000      2.0000000000   0.0
      2.0000000000      1.5000000000   0.0
      0.0000000000      0.0000000000   0.0
      0.0000000000      1.0000000000   0.0
      0.0000000000      2.0000000000   0.0
      1.0000000000      0.0000000000   0.0
      1.0000000000      2.0000000000   0.0
      2.0000000000      0.0000000000   0.0
      2.0000000000      1.0000000000   0.0
      2.0000000000      2.0000000000   0.0
POLYGONS 9 49
  4     4    12     5     0
  5     4     0     1     7    13
  4     7     1     6    14
  5     0     5    15     8     2
  4     0     2     3     1
  5     1     3    10    16     6
  4     2     8    17     9
  5     2     9    18    11     3
  4     3    11    19    10
CELL_DATA 9
SCALARS voronoi_values double 1
LOOKUP_TABLE default
  2.0
  2.0
  2.0
  2.0
  2.0
  2.0
  2.0
  2.0
  2.0
