# vtk DataFile Version 3.0
Voronoi Diagram Export
ASCII
DATASET POLYDATA
POINTS 40 double
      0.5000000000      0.5000000000   0.0
      0.5000000000      1.5000000000   0.0
      0.5000000000      2.5000000000   0.0
      1.5000000000      0.5000000000   0.0
      1.5000000000      1.5000000000   0.0
      1.5000000000      2.5000000000   0.0
      2.5000000000      0.5000000000   0.0
      2.5000000000      1.5000000000   0.0
      2.5000000000      2.5000000000   0.0
      3.5000000000      0.5000000000   0.0
      3.5000000000      1.5000000000   0.0
      3.5000000000      2.5000000000   0.0
      0.0000000000      0.5000000000   0.0
      0.5000000000      0.0000000000   0.0
      0.0000000000      1.5000000000   0.0
      0.5000000000      3.0000000000   0.0
      0.0000000000      2.5000000000   0.0
      1.5000000000      0.0000000000   0.0
      1.5000000000      3.0000000000   0.0
      2.5000000000      0.0000000000   0.0
      2.5000000000      3.0000000000   0.0
      3.5000000000      0.0000000000   0.0
      4.0000000000      0.5000000000   0.0
      4.0000000000      1.5000000000   0.0
      3.5000000000      3.0000000000   0.0
      4.0000000000      2.5000000000   0.0
      0.0000000000      0.0000000000   0.0
      0.0000000000      1.0000000000   0.0
      0.0000000000      2.0000000000   0.0
      0.0000000000      3.0000000000   0.0
      1.0000000000      0.0000000000   0.0
      1.0000000000      3.0000000000   0.0
      2.0000000000      0.0000000000   0.0
      2.0000000000      3.0000000000   0.0
      3.0000000000      0.0000000000   0.0
      3.0000000000      3.0000000000   0.0
      4.0000000000      0.0000000000   0.0
      4.0000000000      1.0000000000   0.0
      4.0000000000      2.0000000000   0.0
      4.0000000000      3.0000000000   0.0
POLYGONS 20 110
  4    12    26    13     0
  5    12     0     1    14    27
  5    14     1     2    16    28
  4    16     2    15    29
  5     0    13    30    17     3
  4     0     3     4     1
  4     1     4     5     2
  5     2     5    18    31    15
  5     3    17    32    19     6
  4     3     6     7     4
  4     4     7     8     5
  5     5     8    20    33    18
  5     6    19    34    21     9
  4     6     9    10     7
  4     7    10    11     8
  5     8    11    24    35    20
  4     9    21    36    22
  5     9    22    37    23    10
  5    10    23    38    25    11
  4    11    25    39    24
CELL_DATA 20
SCALARS voronoi_values double 1
LOOKUP_TABLE default
  2.0
  2.0
  2.0
  2.0
  2.0
  2.0
  2.0
  2.0
  2.0
  2.0
  2.0
  2.0
  2.0
  2.0
  2.0
  2.0
  2.0
  2.0
  2.0
  2.0
