# vtk DataFile Version 3.0
Voronoi Diagram Export
ASCII
DATASET POLYDATA
POINTS 20 double
      0.5000000000      0.5000000000   0.0
      0.5000000000      1.5000000000   0.0
      1.5000000000      0.5000000000   0.0
      1.5000000000      1.5000000000   0.0
      0.0000000000      0.5000000000   0.0
      0.5000000000      0.0000000000   0.0
      0.5000000000      2.0000000000   0.0
      0.0000000000      1.5000000000   0.0
      1.5000000000      0.0000000000   0.0
      2.0000000000      0.5000000000   0.0
      1.5000000000      2.0000000000   0.0
      2.0000000000      1.5000000000   0.0
      0.0000000000      0.0000000000   0.0
      0.0000000000      1.0000000000   0.0
      0.0000000000      2.0000000000   0.0
      1.0000000000      0.0000000000   0.0
      1.0000000000      2.0000000000   0.0
      2.0000000000      0.0000000000   0.0
      2.0000000000      1.0000000000   0.0
      2.0000000000      2.0000000000   0.0
POLYGONS 9 49
  4     5    13     6     1
  5     5     1     2     8    14
  4     8     2     7    15
  5     1     6    16     9     3
  4     1     3     4     2
  5     2     4    11    17     7
  4     3     9    18    10
  5     3    10    19    12     4
  4     4    12    20    11
CELL_DATA 9
SCALARS voronoi_values double 1
LOOKUP_TABLE default
  2.0
  2.0
  2.0
  2.0
  2.0
  2.0
  2.0
  2.0
  2.0
